21
Properties=species:S:1:pos:R:3:forces:R:3:energies:R:1 original_dataset_index=0 energy=-405630.28125 pbc="F F F"
C        2.13448882      -0.98436105      -0.19521789     -28.34593391     -19.12220764      37.65931702  -19318.94726562
C        0.76264381       0.95941395      -1.67992890     -59.39468765      47.01891708      -1.09850621  -19318.95312500
C        2.66034484      -0.40792605      -1.30730391      86.44906616     -15.59835625      -7.05648422  -19319.90625000
C        1.91031682       0.39396596      -2.14701986       7.26036549     -13.07272911      19.99448776  -19321.37304688
C       -3.03019023       1.49540496       0.71966213     -25.25771523     -32.51344681     -24.73840523  -19316.34375000
C        0.84942484      -0.55087107       0.28437510       5.45430851       9.01702023     -10.67098522  -19318.43554688
C        0.23844682       0.47350594      -0.40442190     -20.52026367      62.32803345     -38.15185928  -19321.26953125
O        0.89789581      -2.27643204       1.73006105      -3.90589094       4.10159874       0.47612056  -19324.66406250
O       -2.38345218       0.41777894      -1.46285689      -4.09657669      -4.38670826      -6.80364132  -19325.20507812
O       -0.47620118      -0.52908707       2.33925915      20.33824539     -40.82173538      11.09320831  -19326.96484375
C        0.39299181      -1.19023705       1.53798211      -1.48457611      -8.51413441      13.18463802  -19317.49804688
C       -2.12298512       0.95175993      -0.39770490      16.77807045      16.56986237      39.37524033  -19314.53320312
O       -0.80466616       1.28624594       0.11050910     -17.30560493     -28.42565727     -12.91520309  -19321.58789062
H       -0.49380317      -1.18679202       3.09597421      -8.27115536      32.29966736     -20.85588264  -19299.93945312
H        2.55473471      -1.80249703       0.39213109       5.61647177      -1.70283782       0.47861359  -19310.24609375
H        0.33068982       1.85571098      -2.34526396      16.78667831     -53.88574219      47.74147797  -19307.52343750
H        3.80379391      -0.49371904      -1.45620286     -40.61458969       6.09356594      -3.66158724  -19307.56445312
H        2.23114085       0.55718595      -3.12414980       9.63634300      13.67032242     -46.31780243  -19306.30859375
H       -2.70893025       2.48465800       0.92692810      14.61327362      37.12235641       0.58321810  -19310.53125000
H       -4.13048315       1.48216701       0.43126610      30.83141518      -1.44432747      10.39681339  -19311.77929688
H       -2.87414813       1.00320899       1.69948506      -4.56723166      -8.73347759      -8.71278381  -19310.68750000
21
Properties=species:S:1:pos:R:3:forces:R:3:energies:R:1 original_dataset_index=1 energy=-405634.375 pbc="F F F"
C        1.91282189      -1.34639776      -0.31699905     -29.77350807     -20.35060883      34.91786194  -19320.57617188
C        1.34071088       1.45485032      -0.78646505      -6.61186314     -27.55131340      -2.44224358  -19320.42187500
C        2.73054981      -0.59958571      -1.09802508       8.02259541      50.41304398     -27.74457550  -19320.12109375
C        2.36478090       0.73857927      -1.46352398      -2.81619215     -15.67454433      17.03726387  -19318.41406250
C       -3.01398516       1.97782826       0.42068696      15.46585274     -27.81553459      -6.51064348  -19318.67382812
C        0.76835686      -0.72969675       0.21595296     -29.43250465       7.56580019      10.40515232  -19321.69531250
C        0.44296187       0.63175929      -0.00015904      20.15086365      34.84988785      -0.46743912  -19318.54882812
O       -1.44289112      -1.48546469       0.89958394       9.00722218      19.23159027     -13.29180813  -19325.47070312
O       -1.53074908       1.29142129      -1.45861101      -4.40936041      -0.10957831      -8.79879475  -19323.58593750
O        0.36843586      -2.67051983       1.71684599     -32.34978867      26.77847099     -17.37231445  -19324.85156250
C       -0.23586112      -1.54319978       0.92117697      -4.76227903     -16.35078430      10.36469364  -19313.73046875
C       -1.78978014       1.41991127      -0.26829505      11.80952072     -12.16168499      30.38912773  -19314.31250000
O       -0.74327910       1.12690330       0.68765193      -8.77803898      -7.24854326     -33.45297241  -19321.21093750
H       -0.50164413      -2.95204377       2.01212192      32.02763367     -20.29020691      12.97000217  -19300.77148438
H        2.11360097      -2.36088371       0.06478396       5.11034632      -3.13469243      -4.37452888  -19308.18554688
H        1.16670883       2.51262236      -1.05812109       2.40298510     -24.33241081       9.59049702  -19311.95703125
H        3.64886785      -1.01938772      -1.46973610      13.09707737       2.46693087      -9.30434895  -19308.33593750
H        2.88814092       1.20231521      -2.27787805       0.05713554       4.20341825      -0.89781111  -19309.33203125
H       -3.30188823       2.83899927      -0.15106805     -12.94691086      28.61385345      -3.04012895  -19310.16992188
H       -3.93261313       1.32524431       0.40054396      11.98720741       1.12505734       3.35140467  -19312.37695312
H       -2.76379418       2.16919732       1.47685397       2.74199200      -0.22815631      -1.32839882  -19311.58984375
21
Properties=species:S:1:pos:R:3:forces:R:3:energies:R:1 original_dataset_index=2 energy=-405633.375 pbc="F F F"
C        1.91537046      -1.23015440      -0.38161570      15.32803822     -11.00107384       9.87507343  -19317.09375000
C        0.93052953       0.96500355      -1.79778373      56.43134308       3.71401405     -38.04858780  -19321.92382812
C        2.70541143      -0.63704544      -1.43838573     -13.04772758     -53.31731033      60.17434311  -19322.14062500
C        2.17482162       0.36969057      -2.14823174     -14.13229370      75.50214386     -61.76636505  -19317.47460938
C       -2.84186959       1.72941661       0.69858032       0.85626096       8.22662544     -28.98733902  -19318.25390625
C        0.64553255      -0.75619543      -0.02516269      18.49883270      18.26366997     -34.29467773  -19317.94921875
C        0.17305653       0.36123356      -0.87275267     -73.37004089     -46.14318085      82.93008423  -19320.06640625
O        0.17032552      -2.10590434       2.10380220      -4.45305586      15.88494968     -25.33880997  -19325.17968750
O       -0.52755445       1.93249357       1.32618535      23.89181709      12.97084904      25.47452354  -19324.71875000
O       -1.49039149      -1.50851738       0.62700230       6.16245699     -33.74407196      38.28110886  -19325.79101562
C       -0.19071548      -1.52614844       1.06623125      -6.85970926       2.41782951       1.06349802  -19315.74023438
C       -1.38200450       1.56175160       0.58642334       0.57503814     -26.51704788     -53.47340012  -19318.38281250
O       -1.10375547       0.87195057      -0.61638170      14.35820389       1.52821159      14.20647812  -19320.67773438
H       -1.95758247      -2.16649032       1.23217833      10.04382515      28.48310089     -29.23109055  -19302.51953125
H        2.32019663      -2.04408550       0.26149932      -3.53027058      20.35175133     -21.52861977  -19308.94531250
H        0.53432751       1.86541653      -2.26183081       4.68871689       7.09975338      -8.13065529  -19308.65429688
H        3.71974659      -0.96901542      -1.64032269       4.94139099      -7.59662437       4.16303349  -19308.54687500
H        2.76204443       0.82589656      -3.00110269     -19.06719589     -11.43141842      23.87674713  -19308.49414062
H       -3.05424452       2.44424868       1.45876932     -12.01051235      26.65473366      25.72705841  -19309.91015625
H       -3.32110047       2.11898065      -0.26301569      11.68335724     -10.14995861      11.26540279  -19310.04687500
H       -3.33969259       0.80739355       0.95942229     -20.98848724     -21.19695091       3.76219940  -19310.86523438
21
Properties=species:S:1:pos:R:3:forces:R:3:energies:R:1 original_dataset_index=3 energy=-405625.0 pbc="F F F"
C        2.04997087      -1.05126524      -0.37990412      -8.22626877     -11.81048584       4.94313765  -19319.23828125
C        0.84862483       1.10590076      -1.63686419      26.91422462      -4.58644867     -40.44561386  -19321.33593750
C        2.46391273      -0.73983127      -1.65917516      16.47108269      27.73476982     -46.58414078  -19317.18554688
C        1.88021076       0.44146070      -2.34642816      14.82998562     -50.65955734      39.76230240  -19317.49218750
C       -3.04794216       1.26564276       0.81475484      -6.09432411     -46.03952026      17.09678650  -19315.12500000
C        0.97189581      -0.36912930       0.23092787       0.14743480     -16.13379669      15.39200020  -19319.31250000
C        0.29745081       0.67783672      -0.45206612     -10.28828049     -12.97664833      60.81240463  -19320.21093750
O        0.82180583      -2.07788229       2.00717783      16.15378571      23.52674103     -30.50129128  -19324.60742188
O       -2.21735120       0.21032470      -1.15677118      -4.04233313     -11.60781670     -21.62962723  -19323.96289062
O       -0.63219416      -0.46743429       2.04598880      17.19697571     -41.21372986      20.75108910  -19325.07421875
C        0.50169283      -0.98472726       1.50435591      -8.47095203     -14.41208267       9.42849445  -19316.81835938
C       -2.00852513       0.89730769      -0.17790812      20.37797546      21.97969246      30.90922928  -19317.54882812
O       -0.77251017       1.26871669       0.26467386      13.10536480      -9.02835178     -31.26692009  -19322.82031250
H       -0.87361419      -1.14549732       2.72893476     -17.35198784      37.76019669     -13.04838371  -19301.23242188
H        2.26602387      -2.00592136       0.20027888      -2.04350829      20.69797897     -11.47294426  -19310.13085938
H        0.38719782       1.99285674      -2.00451922      -0.68163294      20.50633240     -22.19707680  -19308.34375000
H        3.36879277      -1.30805624      -2.13351822     -47.09348297      34.81466293      16.13377762  -19307.91601562
H        2.15770292       0.70404571      -3.37680602      -3.59581614      -6.49956036      20.17552376  -19310.26757812
H       -3.87199926       1.70360267       0.28243086     -21.63451576      -7.49163675       1.03964293  -19309.81054688
H       -3.26152420       0.18318671       1.36520290     -11.49178505      58.26515198     -17.11868477  -19305.40039062
H       -2.84937429       1.99582875       1.61499786      15.81806469     -12.82588291      -2.17970109  -19311.18945312
21
Properties=species:S:1:pos:R:3:forces:R:3:energies:R:1 original_dataset_index=4 energy=-405630.375 pbc="F F F"
C        1.86821389      -1.23831606      -0.55609655     -30.69899559     -28.85611343      19.89427185  -19318.02734375
C        1.74850488       1.40904391      -0.19489957     -43.25458145      43.37096405      20.70061874  -19320.45507812
C        2.94664788      -0.41460505      -0.88844061      18.83677292     -23.68159866     -16.28098488  -19318.06640625
C        2.94217491       0.99768394      -0.66277057      37.25676727     -61.12804794     -22.32158661  -19320.28710938
C       -2.90093303       2.14715290       0.60824943      11.04690075     -67.65981293      19.73975182  -19316.67773438
C        0.63889992      -0.70392603      -0.01926658       4.34634829     -54.24224091      -5.56114578  -19317.76757812
C        0.52231896       0.65095294      -0.01272058      -6.00312948      67.79656982      10.36635494  -19321.24414062
O       -1.37067604      -1.12329900       1.27868247      23.41320610      -2.23777270     -18.27519798  -19324.61914062
O       -2.00274897       0.44592196      -0.98867857      -6.08162022      -3.39544034      -7.14425182  -19322.95507812
O       -0.25580308      -2.94900298       0.25022742      -9.88621521      35.40599823      19.67363548  -19328.35742188
C       -0.42521608      -1.60497010       0.61438644      -1.45297074      -9.43772888      -4.58871794  -19315.24609375
C       -1.80409706       1.32506895      -0.16153558      28.32388115       8.57635117      29.34576607  -19315.31250000
O       -0.56085408       1.44878399       0.37617841       5.22609949     -15.96969795     -17.29273796  -19323.49218750
H       -0.87588108      -3.42823505       0.80177140       9.14634991      -3.61761904     -10.92805290  -19302.14453125
H        1.81231594      -2.37414598      -0.51870656      15.35528660      31.83431435      -7.09042549  -19307.70117188
H        1.66057599       2.41176486       0.17713042      -8.21250439       8.15138149       3.01427412  -19307.99023438
H        3.76828599      -0.95699006      -1.43974054     -13.91340637      29.52120209      14.90014648  -19307.63671875
H        3.85081387       1.63523197      -0.79579461     -17.78000069     -10.23098469       2.85066700  -19309.99023438
H       -2.55335808       3.00523996       1.12890244      13.15554142      10.66611481       9.48331356  -19312.33984375
H       -3.67112899       2.31366396      -0.06822558     -42.78386688      21.06536484     -34.91750717  -19310.30468750
H       -3.41430616       1.37574697       1.32909143      13.96013546      24.06878853      -5.56819344  -19309.73437500
21
Properties=species:S:1:pos:R:3:forces:R:3:energies:R:1 original_dataset_index=5 energy=-405627.09375 pbc="F F F"
C        2.12360430      -1.08220959      -0.29276380     -32.95117950      35.80917740     -18.10733223  -19316.88281250
C        0.74887419       1.05811942      -1.59345984     -17.99245071      56.54329300     -38.31877899  -19319.31250000
C        2.52806926      -0.59949058      -1.58242977     -61.41048050      21.77699280      39.47320938  -19321.21289062
C        1.80041015       0.42231241      -2.22812176      -0.08787584      22.40708923     -12.20867348  -19319.17187500
C       -3.13007689       1.70581341       0.47243020      33.43299866       0.35972553      -9.67004490  -19320.00195312
C        0.92309821      -0.45261160       0.27343422      64.33599091     -65.53787994       5.77642250  -19317.98046875
C        0.30283520       0.58707041      -0.36611578     -39.24001694      25.08378220      26.37744904  -19322.94726562
O        1.07924223      -2.26497865       2.04750228       5.15678692      34.41596222     -35.22397995  -19323.73046875
O       -2.29570770       0.45096642      -1.39274979      -5.18408108      -5.90816021     -10.08174419  -19323.54687500
O       -0.62113482      -0.76988858       2.31339121      28.06028557     -34.83726883      -4.84536695  -19326.81640625
C        0.51345623      -1.19322860       1.63499916      -7.40168524     -25.54896355      30.74505424  -19312.12890625
C       -2.08626580       1.02943945      -0.33451578      42.81150436     -13.24439526     -10.83037090  -19315.74804688
O       -0.79981583       1.21990037       0.17541322     -22.21868706      -2.86770439      -6.24364471  -19324.07421875
H       -0.68150681      -1.57717955       2.87085819     -20.11375618      36.21887589      -8.30180359  -19300.61914062
H        2.54029918      -1.95011556       0.20005222      -7.33669519       4.33917761       5.09662342  -19310.60546875
H        0.26715618       2.06434536      -1.97953475      33.44874573     -54.62921143      13.89091396  -19309.45117188
H        3.37509322      -0.90279156      -2.07079387      50.08030319     -24.89133072     -19.31979179  -19306.03906250
H        2.15903711       0.95150143      -3.14415574       2.37414145     -22.47975731      17.84767151  -19308.08398438
H       -3.87579584       2.15662932      -0.14076878     -19.60685349      27.79864883     -20.59770203  -19310.10742188
H       -3.71025872       1.03502536       1.03703117     -34.80047989     -38.13442612      39.75047684  -19309.56835938
H       -2.55740190       2.30513144       1.16107321       8.64348030      23.32637215      14.79142284  -19309.10546875
21
Properties=species:S:1:pos:R:3:forces:R:3:energies:R:1 original_dataset_index=6 energy=-405634.65625 pbc="F F F"
C        1.94373798      -1.12190604      -0.54240167      49.10065079      68.31729126     -89.28434753  -19317.98632812
C        0.99291605       1.35484993      -1.57269061       7.58646631     -33.34908295      17.98178101  -19321.43164062
C        2.62563014      -0.53110909      -1.72131765     -33.98394394      30.28065872      23.92060280  -19318.93164062
C        2.12606502       0.72246391      -2.14591360      -9.52751160     -11.41398907       0.79871279  -19318.90039062
C       -3.07824588       1.81977296       0.05110235       4.72677851      -0.42745292      27.30807495  -19314.17578125
C        0.89039701      -0.51656407       0.03505735     -41.29968262      39.19503403      14.71347427  -19321.78515625
C        0.36034304       0.70687193      -0.45276865     -19.53454971      39.15521622      -5.58563423  -19321.08203125
O        0.17583703      -2.29128599       1.48834133       7.21071911      13.37061977     -15.38803101  -19324.35546875
O       -2.29219389      -0.55632710       0.26895136      -4.24578476     -15.02341938       0.98560268  -19324.76562500
O       -0.07219698      -0.21676609       2.17146635     -11.83312702     -46.51834488      28.70501328  -19324.60351562
C        0.27147204      -1.10362303       1.24360335     -11.89597797     -13.28277588      19.97102547  -19319.26562500
C       -2.06452298       0.59975493       0.01414335      15.77011776      44.55059814       0.68586630  -19313.84765625
O       -0.77819699       1.23148990       0.14688335       4.47402287     -35.63903046     -20.67657280  -19322.90820312
H       -0.36985096      -0.78607410       2.98284745       8.35827351      43.03564072     -27.86813354  -19302.10742188
H        2.12896013      -2.06208515      -0.28594366      22.35191345     -84.97026825      22.52400208  -19303.97656250
H        0.55817705       2.23286891      -2.04555368       5.54714012      -5.58755875       0.85558879  -19310.75195312
H        3.59125900      -0.87859911      -2.05085754      -3.59811807      -8.84899044       6.28805208  -19309.74218750
H        2.43179107       1.17466688      -3.10297060       1.12212372      -7.91542912      12.43287277  -19308.60546875
H       -3.65343690       1.68065286       1.04530036       8.68169308       9.45893097     -44.94604874  -19310.36718750
H       -2.39145207       2.69339395       0.27184734     -15.86547375      -9.05438232      -6.95500660  -19311.27148438
H       -3.64546299       2.04819393      -0.87819463      16.85426712     -15.33324432      33.53310013  -19313.74218750
21
Properties=species:S:1:pos:R:3:forces:R:3:energies:R:1 original_dataset_index=7 energy=-405634.625 pbc="F F F"
C        1.78169668      -1.29213583      -0.61799306       2.21301937      24.88011742     -22.07199097  -19319.04882812
C        0.73353362       1.04915714      -1.64525902      -2.90641022      40.05193329     -20.00682259  -19322.43750000
C        2.27256870      -0.75770682      -1.85033500      -3.34318972       4.32091093       8.78778648  -19319.97265625
C        1.76496065       0.47451916      -2.36644411       1.60886872     -55.73432159      54.51526642  -19320.52148438
C       -3.07672548       1.53583813       0.54462796      10.71936607      -3.26824522     -32.39144516  -19319.55664062
C        0.82908666      -0.59266984       0.15878396      25.85953712     -25.62906265     -11.74144077  -19319.98632812
C        0.31400165       0.55988920      -0.43717703     -17.52643967       6.08310938      54.72768021  -19320.10156250
O        1.17572558      -1.65040684       2.30576301       0.02678388       2.35352802      -7.08352423  -19325.11523438
O       -2.05920744      -0.09448282      -0.76926506     -19.85739708     -32.12025070     -26.28191948  -19324.02343750
O       -0.65391135      -0.44790182       1.94328094      11.80695248     -16.02580070      18.98536110  -19326.15625000
C        0.50311261      -1.03588688       1.54442000     -12.09981441      11.23762608      -2.72045135  -19318.13867188
C       -1.93371832       0.81796920      -0.04059004      51.98484421      26.53112221      30.26766968  -19314.84375000
O       -0.66524035       1.37225723       0.24812096     -13.42305756     -11.58952808     -16.77260780  -19320.90820312
H       -0.74349636      -0.54720682       2.88611984      -9.91023922       7.93609047     -10.32134247  -19303.69531250
H        2.33718467      -2.10840583      -0.20708203       4.59510374     -10.67135715       3.10651445  -19308.80664062
H        0.37151465       2.06784415      -1.84690702       0.44026986      -3.29046345      -7.76397800  -19308.97851562
H        3.11624765      -1.26714683      -2.31596398     -11.02400303       5.97254848       5.68634939  -19309.76171875
H        1.97366369       0.75522918      -3.33470106      15.52163887      16.46515846     -51.81341553  -19306.79296875
H       -3.71779728       0.80257720       0.95669097     -27.19389915     -23.70210457      23.03784561  -19309.47460938
H       -2.82697725       2.36229610       1.15123093      14.55691814      25.04942703      27.20859718  -19310.24023438
H       -3.51807046       1.92031920      -0.37310103     -22.04885292      11.14955425     -17.35413742  -19306.09179688
21
Properties=species:S:1:pos:R:3:forces:R:3:energies:R:1 original_dataset_index=8 energy=-405637.78125 pbc="F F F"
C        1.92179656      -1.17710006      -0.29663643     -10.61628628     -86.42876434      18.29587555  -19320.09765625
C        1.49775147       1.45259392      -0.50778246     -20.52523422      49.16076279       9.31417847  -19321.02148438
C        2.92208552      -0.39918607      -0.82230842      36.23517990      -1.44640148     -17.96314049  -19321.79687500
C        2.74979258       0.97421890      -0.89701742     -27.37961006       9.84391117       8.20164490  -19320.22460938
C       -2.62442541       2.21092486       0.69489455      56.87787628      18.33573341     -11.13731861  -19315.05468750
C        0.67656350      -0.72098809       0.09661056      -7.76240301     -46.10796738       9.70583630  -19317.75000000
C        0.43978852       0.59947592      -0.06316844     -18.08993912      79.43772125      10.54145813  -19322.61718750
O       -1.49777842      -1.29623306       1.23754060      16.96302223       2.06638312      -3.32289910  -19324.93359375
O       -1.99120843       0.75432289      -1.28269541      -7.82434368      -6.42306805     -17.82608795  -19324.53320312
O       -0.01886547      -2.87311816       0.39957857     -36.27013016      -5.06740332      32.49896622  -19326.06445312
C       -0.40542248      -1.61450112       0.79523057       2.30726480     -11.04840660     -14.13664627  -19316.86914062
C       -1.79818046       1.28386486      -0.21682245      20.05496407      17.65626335      16.86487007  -19314.93359375
O       -0.64319146       1.15391195       0.52359557       0.89008510     -11.15607548     -23.11318398  -19324.11328125
H       -0.63799149      -3.55641007       0.81996256      29.17976761      21.88175964     -22.50020409  -19303.14648438
H        2.04646349      -2.29158306      -0.16489343      10.52684021      20.82456970      -6.68354654  -19307.47265625
H        1.35864055       2.54615688      -0.32623744       5.00093222     -31.68953323      -8.41253662  -19309.50781250
H        3.82721758      -0.84451008      -1.26043844      -1.24242723      -1.97525966       2.45739150  -19308.58398438
H        3.45619345       1.71530986      -1.19778049      18.08491516       6.72934008      -6.23102331  -19308.29296875
H       -2.43368459       1.67048788       1.61763060      -7.40306902      20.85492897      21.15674973  -19309.50585938
H       -2.17261744       3.30615997       0.62967557     -14.37151718     -50.92396545      10.74878693  -19308.90234375
H       -3.61990142       2.27142000       0.43788856     -44.63589859       5.47547579      -8.45916653  -19312.38476562
21
Properties=species:S:1:pos:R:3:forces:R:3:energies:R:1 original_dataset_index=9 energy=-405633.125 pbc="F F F"
C        2.01414847      -1.21391702      -0.26192668     -46.93184280      11.26713181      22.53457260  -19319.62304688
C        1.39188433       1.29709399      -1.02379966     -44.70181274      21.27609444      11.83240795  -19322.75195312
C        2.87654042      -0.54993701      -1.13818264      -2.49474144     -29.97701073      18.04772377  -19321.18554688
C        2.51489544       0.70905596      -1.51073265      40.01044846      48.26626587     -43.93355942  -19319.76171875
C       -2.99773359       1.88914204       0.49786633     -42.87358856     -10.64412594      -2.05960751  -19314.49023438
C        0.78313738      -0.61994904       0.24356532      23.55068779     -20.20942688     -15.18187809  -19318.17187500
C        0.42033038       0.69237500      -0.21191968      -8.28400612     -35.98861313      42.85401154  -19317.85937500
O       -1.08078969      -0.89475602       1.68292236      15.79322147      -9.16694546     -12.05450821  -19323.74023438
O       -2.07697368       0.65738899      -1.29641867      -1.08858025     -20.17002487     -32.61635208  -19323.84960938
O        0.16552436      -2.82090306       1.22705436     -42.22888947      21.42041588      14.36261559  -19326.84765625
C       -0.12205064      -1.48084104       1.12289035       1.74697590       5.50652742       0.72316039  -19316.57226562
C       -1.90012562       1.19119000      -0.23757169       4.61813068      40.09764862      43.12344742  -19319.21484375
O       -0.71727365       1.41274095       0.35279432      30.76121330     -23.90172195     -23.00429153  -19323.25195312
H       -0.62297666      -3.26975894       1.70818532      36.57361603       8.04548550     -19.57793617  -19302.33789062
H        2.17320633      -2.24471211      -0.02048468       0.20424716     -12.10353565       5.93880177  -19308.20703125
H        1.08125341       2.27557898      -1.26687372       0.91270602      33.35030365     -14.42940235  -19306.44531250
H        3.84621930      -0.93216902      -1.41720271      11.27284908     -10.33576488      -2.43527532  -19308.73242188
H        3.23106933       1.30777192      -2.14655662     -12.09247398     -12.89161015      10.35349178  -19308.67382812
H       -3.61588073       2.54355788      -0.19724669       8.31511021      -9.82156754       7.65848255  -19310.25976562
H       -3.77146864       1.06485903       0.79639333      19.79883957      31.55407333       3.04078794  -19309.64648438
H       -2.75699258       2.57840896       1.33930731       7.13789463     -25.57359695     -15.17670059  -19311.46679688
21
Properties=species:S:1:pos:R:3:forces:R:3:energies:R:1 original_dataset_index=10 energy=-405628.84375 pbc="F F F"
C        1.94713175      -1.04557812      -0.33334494     -10.26858711      -2.70667028      -5.02614784  -19319.14648438
C        0.95079869       1.14532995      -1.60147500      -4.86926413      47.47873688     -35.13315201  -19321.53710938
C        2.67148972      -0.49288410      -1.37732995      15.33939838      21.61123466     -15.23461914  -19320.35351562
C        2.17264366       0.65219593      -2.09106588       2.32715344     -49.28305817      40.39408875  -19320.12890625
C       -3.25805640       1.31241786       0.62585306      16.39508629      -1.43481803     -35.63830566  -19317.33007812
C        0.69967771      -0.55880207       0.09367305      -4.39842653     -10.12733173      26.23148918  -19318.96875000
C        0.25133669       0.60095793      -0.56555593     -10.76599407      -8.17633533      43.76278687  -19319.37500000
O        0.47788671      -2.39259720       1.79524505       2.15606999      20.67903519     -15.22045517  -19325.13867188
O       -2.12491441       0.10116892      -1.19359791      -8.39740944       2.11683917       2.93818831  -19322.75781250
O       -0.22437230      -0.25778410       2.33786798      -0.82145017     -41.02359772      11.91846085  -19324.54101562
C        0.35395870      -1.23819613       1.44498110     -18.48851013      18.24174690      16.43879318  -19313.17382812
C       -2.02501535       0.89984590      -0.23236495       5.25701046      33.86109924       7.73542118  -19313.37109375
O       -0.79235429       1.38282096       0.13533005      -7.95680332     -21.46802139     -16.82073212  -19322.17187500
H       -0.53293228      -0.68849111       3.19662094      13.00182152      21.41291618     -37.10803223  -19304.53710938
H        2.21842575      -1.94720614       0.19237505      13.60920429     -11.12030506       2.55306411  -19310.96093750
H        0.50264770       2.03476000      -2.09839201      12.31304359     -13.77878666       0.62513459  -19309.37890625
H        3.70630980      -0.88021308      -1.42813694     -12.57116127      12.54623127     -10.43910599  -19307.40234375
H        2.41413474       0.87210393      -3.10887003       9.24031830       4.70738363     -14.60333920  -19309.25390625
H       -3.29261923       2.16710591       1.29587901      11.97647095      15.26565170      -0.40105370  -19311.32226562
H       -4.17093229       1.31726992       0.01321805      -8.63069630       9.30708694     -15.07960510  -19310.47656250
H       -3.38621235       0.45152092       1.20073700     -14.44726944     -48.10903931      48.10712433  -19307.51562500
21
Properties=species:S:1:pos:R:3:forces:R:3:energies:R:1 original_dataset_index=11 energy=-405634.40625 pbc="F F F"
C        1.80503845      -1.27140307      -0.45853445      -5.10306501      11.09341621      -2.24236751  -19318.34179688
C        1.01749444       1.17740488      -1.52622247      70.01003265      -8.18167019     -69.38239288  -19318.93359375
C        2.60127044      -0.73516810      -1.48344040     -45.88702393      80.65039825     -22.67983437  -19320.84765625